<?xml version="1.0"?>
<VTKFile type="UnstructuredGrid"  version="0.1"  >
<UnstructuredGrid>
<Piece  NumberOfPoints="3321" NumberOfCells="6400">
<Points>
<DataArray  type="Float64"  NumberOfComponents="3"  format="ascii">0 0 0  0.025 0 0  0.05 0 0  0.075 0 0  0.1 0 0  0.125 0 0  0.15 0 0  0.175 0 0  0.2 0 0  0.225 0 0  0.25 0 0  0.275 0 0  0.3 0 0  0.325 0 0  0.35 0 0  0.375 0 0  0.4 0 0  0.425 0 0  0.45 0 0  0.475 0 0  0.5 0 0  0.525 0 0  0.55 0 0  0.575 0 0  0.6 0 0  0.625 0 0  0.65 0 0  0.675 0 0  0.7 0 0  0.725 0 0  0.75 0 0  0.775 0 0  0.8 0 0  0.825 0 0  0.85 0 0  0.875 0 0  0.9 0 0  0.925 0 0  0.95 0 0  0.975 0 0  1 0 0  0 0.025 0  0.025 0.025 0  0.05 0.025 0  0.075 0.025 0  0.1 0.025 0  0.125 0.025 0  0.15 0.025 0  0.175 0.025 0  0.2 0.025 0  0.225 0.025 0  0.25 0.025 0  0.275 0.025 0  0.3 0.025 0  0.325 0.025 0  0.35 0.025 0  0.375 0.025 0  0.4 0.025 0  0.425 0.025 0  0.45 0.025 0  0.475 0.025 0  0.5 0.025 0  0.525 0.025 0  0.55 0.025 0  0.575 0.025 0  0.6 0.025 0  0.625 0.025 0  0.65 0.025 0  0.675 0.025 0  0.7 0.025 0  0.725 0.025 0  0.75 0.025 0  0.775 0.025 0  0.8 0.025 0  0.825 0.025 0  0.85 0.025 0  0.875 0.025 0  0.9 0.025 0  0.925 0.025 0  0.95 0.025 0  0.975 0.025 0  1 0.025 0  0 0.05 0  0.025 0.05 0  0.05 0.05 0  0.075 0.05 0  0.1 0.05 0  0.125 0.05 0  0.15 0.05 0  0.175 0.05 0  0.2 0.05 0  0.225 0.05 0  0.25 0.05 0  0.275 0.05 0  0.3 0.05 0  0.325 0.05 0  0.35 0.05 0  0.375 0.05 0  0.4 0.05 0  0.425 0.05 0  0.45 0.05 0  0.475 0.05 0  0.5 0.05 0  0.525 0.05 0  0.55 0.05 0  0.575 0.05 0  0.6 0.05 0  0.625 0.05 0  0.65 0.05 0  0.675 0.05 0  0.7 0.05 0  0.725 0.05 0  0.75 0.05 0  0.775 0.05 0  0.8 0.05 0  0.825 0.05 0  0.85 0.05 0  0.875 0.05 0  0.9 0.05 0  0.925 0.05 0  0.95 0.05 0  0.975 0.05 0  1 0.05 0  0 0.075 0  0.025 0.075 0  0.05 0.075 0  0.075 0.075 0  0.1 0.075 0  0.125 0.075 0  0.15 0.075 0  0.175 0.075 0  0.2 0.075 0  0.225 0.075 0  0.25 0.075 0  0.275 0.075 0  0.3 0.075 0  0.325 0.075 0  0.35 0.075 0  0.375 0.075 0  0.4 0.075 0  0.425 0.075 0  0.45 0.075 0  0.475 0.075 0  0.5 0.075 0  0.525 0.075 0  0.55 0.075 0  0.575 0.075 0  0.6 0.075 0  0.625 0.075 0  0.65 0.075 0  0.675 0.075 0  0.7 0.075 0  0.725 0.075 0  0.75 0.075 0  0.775 0.075 0  0.8 0.075 0  0.825 0.075 0  0.85 0.075 0  0.875 0.075 0  0.9 0.075 0  0.925 0.075 0  0.95 0.075 0  0.975 0.075 0  1 0.075 0  0 0.1 0  0.025 0.1 0  0.05 0.1 0  0.075 0.1 0  0.1 0.1 0  0.125 0.1 0  0.15 0.1 0  0.175 0.1 0  0.2 0.1 0  0.225 0.1 0  0.25 0.1 0  0.275 0.1 0  0.3 0.1 0  0.325 0.1 0  0.35 0.1 0  0.375 0.1 0  0.4 0.1 0  0.425 0.1 0  0.45 0.1 0  0.475 0.1 0  0.5 0.1 0  0.525 0.1 0  0.55 0.1 0  0.575 0.1 0  0.6 0.1 0  0.625 0.1 0  0.65 0.1 0  0.675 0.1 0  0.7 0.1 0  0.725 0.1 0  0.75 0.1 0  0.775 0.1 0  0.8 0.1 0  0.825 0.1 0  0.85 0.1 0  0.875 0.1 0  0.9 0.1 0  0.925 0.1 0  0.95 0.1 0  0.975 0.1 0  1 0.1 0  0 0.125 0  0.025 0.125 0  0.05 0.125 0  0.075 0.125 0  0.1 0.125 0  0.125 0.125 0  0.15 0.125 0  0.175 0.125 0  0.2 0.125 0  0.225 0.125 0  0.25 0.125 0  0.275 0.125 0  0.3 0.125 0  0.325 0.125 0  0.35 0.125 0  0.375 0.125 0  0.4 0.125 0  0.425 0.125 0  0.45 0.125 0  0.475 0.125 0  0.5 0.125 0  0.525 0.125 0  0.55 0.125 0  0.575 0.125 0  0.6 0.125 0  0.625 0.125 0  0.65 0.125 0  0.675 0.125 0  0.7 0.125 0  0.725 0.125 0  0.75 0.125 0  0.775 0.125 0  0.8 0.125 0  0.825 0.125 0  0.85 0.125 0  0.875 0.125 0  0.9 0.125 0  0.925 0.125 0  0.95 0.125 0  0.975 0.125 0  1 0.125 0  0 0.15 0  0.025 0.15 0  0.05 0.15 0  0.075 0.15 0  0.1 0.15 0  0.125 0.15 0  0.15 0.15 0  0.175 0.15 0  0.2 0.15 0  0.225 0.15 0  0.25 0.15 0  0.275 0.15 0  0.3 0.15 0  0.325 0.15 0  0.35 0.15 0  0.375 0.15 0  0.4 0.15 0  0.425 0.15 0  0.45 0.15 0  0.475 0.15 0  0.5 0.15 0  0.525 0.15 0  0.55 0.15 0  0.575 0.15 0  0.6 0.15 0  0.625 0.15 0  0.65 0.15 0  0.675 0.15 0  0.7 0.15 0  0.725 0.15 0  0.75 0.15 0  0.775 0.15 0  0.8 0.15 0  0.825 0.15 0  0.85 0.15 0  0.875 0.15 0  0.9 0.15 0  0.925 0.15 0  0.95 0.15 0  0.975 0.15 0  1 0.15 0  0 0.175 0  0.025 0.175 0  0.05 0.175 0  0.075 0.175 0  0.1 0.175 0  0.125 0.175 0  0.15 0.175 0  0.175 0.175 0  0.2 0.175 0  0.225 0.175 0  0.25 0.175 0  0.275 0.175 0  0.3 0.175 0  0.325 0.175 0  0.35 0.175 0  0.375 0.175 0  0.4 0.175 0  0.425 0.175 0  0.45 0.175 0  0.475 0.175 0  0.5 0.175 0  0.525 0.175 0  0.55 0.175 0  0.575 0.175 0  0.6 0.175 0  0.625 0.175 0  0.65 0.175 0  0.675 0.175 0  0.7 0.175 0  0.725 0.175 0  0.75 0.175 0  0.775 0.175 0  0.8 0.175 0  0.825 0.175 0  0.85 0.175 0  0.875 0.175 0  0.9 0.175 0  0.925 0.175 0  0.95 0.175 0  0.975 0.175 0  1 0.175 0  0 0.2 0  0.025 0.2 0  0.05 0.2 0  0.075 0.2 0  0.1 0.2 0  0.125 0.2 0  0.15 0.2 0  0.175 0.2 0  0.2 0.2 0  0.225 0.2 0  0.25 0.2 0  0.275 0.2 0  0.3 0.2 0  0.325 0.2 0  0.35 0.2 0  0.375 0.2 0  0.4 0.2 0  0.425 0.2 0  0.45 0.2 0  0.475 0.2 0  0.5 0.2 0  0.525 0.2 0  0.55 0.2 0  0.575 0.2 0  0.6 0.2 0  0.625 0.2 0  0.65 0.2 0  0.675 0.2 0  0.7 0.2 0  0.725 0.2 0  0.75 0.2 0  0.775 0.2 0  0.8 0.2 0  0.825 0.2 0  0.85 0.2 0  0.875 0.2 0  0.9 0.2 0  0.925 0.2 0  0.95 0.2 0  0.975 0.2 0  1 0.2 0  0 0.225 0  0.025 0.225 0  0.05 0.225 0  0.075 0.225 0  0.1 0.225 0  0.125 0.225 0  0.15 0.225 0  0.175 0.225 0  0.2 0.225 0  0.225 0.225 0  0.25 0.225 0  0.275 0.225 0  0.3 0.225 0  0.325 0.225 0  0.35 0.225 0  0.375 0.225 0  0.4 0.225 0  0.425 0.225 0  0.45 0.225 0  0.475 0.225 0  0.5 0.225 0  0.525 0.225 0  0.55 0.225 0  0.575 0.225 0  0.6 0.225 0  0.625 0.225 0  0.65 0.225 0  0.675 0.225 0  0.7 0.225 0  0.725 0.225 0  0.75 0.225 0  0.775 0.225 0  0.8 0.225 0  0.825 0.225 0  0.85 0.225 0  0.875 0.225 0  0.9 0.225 0  0.925 0.225 0  0.95 0.225 0  0.975 0.225 0  1 0.225 0  0 0.25 0  0.025 0.25 0  0.05 0.25 0  0.075 0.25 0  0.1 0.25 0  0.125 0.25 0  0.15 0.25 0  0.175 0.25 0  0.2 0.25 0  0.225 0.25 0  0.25 0.25 0  0.275 0.25 0  0.3 0.25 0  0.325 0.25 0  0.35 0.25 0  0.375 0.25 0  0.4 0.25 0  0.425 0.25 0  0.45 0.25 0  0.475 0.25 0  0.5 0.25 0  0.525 0.25 0  0.55 0.25 0  0.575 0.25 0  0.6 0.25 0  0.625 0.25 0  0.65 0.25 0  0.675 0.25 0  0.7 0.25 0  0.725 0.25 0  0.75 0.25 0  0.775 0.25 0  0.8 0.25 0  0.825 0.25 0  0.85 0.25 0  0.875 0.25 0  0.9 0.25 0  0.925 0.25 0  0.95 0.25 0  0.975 0.25 0  1 0.25 0  0 0.275 0  0.025 0.275 0  0.05 0.275 0  0.075 0.275 0  0.1 0.275 0  0.125 0.275 0  0.15 0.275 0  0.175 0.275 0  0.2 0.275 0  0.225 0.275 0  0.25 0.275 0  0.275 0.275 0  0.3 0.275 0  0.325 0.275 0  0.35 0.275 0  0.375 0.275 0  0.4 0.275 0  0.425 0.275 0  0.45 0.275 0  0.475 0.275 0  0.5 0.275 0  0.525 0.275 0  0.55 0.275 0  0.575 0.275 0  0.6 0.275 0  0.625 0.275 0  0.65 0.275 0  0.675 0.275 0  0.7 0.275 0  0.725 0.275 0  0.75 0.275 0  0.775 0.275 0  0.8 0.275 0  0.825 0.275 0  0.85 0.275 0  0.875 0.275 0  0.9 0.275 0  0.925 0.275 0  0.95 0.275 0  0.975 0.275 0  1 0.275 0  0 0.3 0  0.025 0.3 0  0.05 0.3 0  0.075 0.3 0  0.1 0.3 0  0.125 0.3 0  0.15 0.3 0  0.175 0.3 0  0.2 0.3 0  0.225 0.3 0  0.25 0.3 0  0.275 0.3 0  0.3 0.3 0  0.325 0.3 0  0.35 0.3 0  0.375 0.3 0  0.4 0.3 0  0.425 0.3 0  0.45 0.3 0  0.475 0.3 0  0.5 0.3 0  0.525 0.3 0  0.55 0.3 0  0.575 0.3 0  0.6 0.3 0  0.625 0.3 0  0.65 0.3 0  0.675 0.3 0  0.7 0.3 0  0.725 0.3 0  0.75 0.3 0  0.775 0.3 0  0.8 0.3 0  0.825 0.3 0  0.85 0.3 0  0.875 0.3 0  0.9 0.3 0  0.925 0.3 0  0.95 0.3 0  0.975 0.3 0  1 0.3 0  0 0.325 0  0.025 0.325 0  0.05 0.325 0  0.075 0.325 0  0.1 0.325 0  0.125 0.325 0  0.15 0.325 0  0.175 0.325 0  0.2 0.325 0  0.225 0.325 0  0.25 0.325 0  0.275 0.325 0  0.3 0.325 0  0.325 0.325 0  0.35 0.325 0  0.375 0.325 0  0.4 0.325 0  0.425 0.325 0  0.45 0.325 0  0.475 0.325 0  0.5 0.325 0  0.525 0.325 0  0.55 0.325 0  0.575 0.325 0  0.6 0.325 0  0.625 0.325 0  0.65 0.325 0  0.675 0.325 0  0.7 0.325 0  0.725 0.325 0  0.75 0.325 0  0.775 0.325 0  0.8 0.325 0  0.825 0.325 0  0.85 0.325 0  0.875 0.325 0  0.9 0.325 0  0.925 0.325 0  0.95 0.325 0  0.975 0.325 0  1 0.325 0  0 0.35 0  0.025 0.35 0  0.05 0.35 0  0.075 0.35 0  0.1 0.35 0  0.125 0.35 0  0.15 0.35 0  0.175 0.35 0  0.2 0.35 0  0.225 0.35 0  0.25 0.35 0  0.275 0.35 0  0.3 0.35 0  0.325 0.35 0  0.35 0.35 0  0.375 0.35 0  0.4 0.35 0  0.425 0.35 0  0.45 0.35 0  0.475 0.35 0  0.5 0.35 0  0.525 0.35 0  0.55 0.35 0  0.575 0.35 0  0.6 0.35 0  0.625 0.35 0  0.65 0.35 0  0.675 0.35 0  0.7 0.35 0  0.725 0.35 0  0.75 0.35 0  0.775 0.35 0  0.8 0.35 0  0.825 0.35 0  0.85 0.35 0  0.875 0.35 0  0.9 0.35 0  0.925 0.35 0  0.95 0.35 0  0.975 0.35 0  1 0.35 0  0 0.375 0  0.025 0.375 0  0.05 0.375 0  0.075 0.375 0  0.1 0.375 0  0.125 0.375 0  0.15 0.375 0  0.175 0.375 0  0.2 0.375 0  0.225 0.375 0  0.25 0.375 0  0.275 0.375 0  0.3 0.375 0  0.325 0.375 0  0.35 0.375 0  0.375 0.375 0  0.4 0.375 0  0.425 0.375 0  0.45 0.375 0  0.475 0.375 0  0.5 0.375 0  0.525 0.375 0  0.55 0.375 0  0.575 0.375 0  0.6 0.375 0  0.625 0.375 0  0.65 0.375 0  0.675 0.375 0  0.7 0.375 0  0.725 0.375 0  0.75 0.375 0  0.775 0.375 0  0.8 0.375 0  0.825 0.375 0  0.85 0.375 0  0.875 0.375 0  0.9 0.375 0  0.925 0.375 0  0.95 0.375 0  0.975 0.375 0  1 0.375 0  0 0.4 0  0.025 0.4 0  0.05 0.4 0  0.075 0.4 0  0.1 0.4 0  0.125 0.4 0  0.15 0.4 0  0.175 0.4 0  0.2 0.4 0  0.225 0.4 0  0.25 0.4 0  0.275 0.4 0  0.3 0.4 0  0.325 0.4 0  0.35 0.4 0  0.375 0.4 0  0.4 0.4 0  0.425 0.4 0  0.45 0.4 0  0.475 0.4 0  0.5 0.4 0  0.525 0.4 0  0.55 0.4 0  0.575 0.4 0  0.6 0.4 0  0.625 0.4 0  0.65 0.4 0  0.675 0.4 0  0.7 0.4 0  0.725 0.4 0  0.75 0.4 0  0.775 0.4 0  0.8 0.4 0  0.825 0.4 0  0.85 0.4 0  0.875 0.4 0  0.9 0.4 0  0.925 0.4 0  0.95 0.4 0  0.975 0.4 0  1 0.4 0  0 0.425 0  0.025 0.425 0  0.05 0.425 0  0.075 0.425 0  0.1 0.425 0  0.125 0.425 0  0.15 0.425 0  0.175 0.425 0  0.2 0.425 0  0.225 0.425 0  0.25 0.425 0  0.275 0.425 0  0.3 0.425 0  0.325 0.425 0  0.35 0.425 0  0.375 0.425 0  0.4 0.425 0  0.425 0.425 0  0.45 0.425 0  0.475 0.425 0  0.5 0.425 0  0.525 0.425 0  0.55 0.425 0  0.575 0.425 0  0.6 0.425 0  0.625 0.425 0  0.65 0.425 0  0.675 0.425 0  0.7 0.425 0  0.725 0.425 0  0.75 0.425 0  0.775 0.425 0  0.8 0.425 0  0.825 0.425 0  0.85 0.425 0  0.875 0.425 0  0.9 0.425 0  0.925 0.425 0  0.95 0.425 0  0.975 0.425 0  1 0.425 0  0 0.45 0  0.02
[...]
<PointData  Scalars="f_46"> 
<DataArray  type="Float64"  Name="f_46"  format="ascii">9.9999999087597337e+02  9.9999998150270994e+02  9.9999996321693754e+02  9.9999992835999569e+02  9.9999986356219472e+02  9.9999974634561693e+02  9.9999954049487894e+02  9.9999919044279488e+02  9.9999861565632375e+02  9.9999770714431213e+02  9.9999632955382651e+02  9.9999433330323996e+02  9.9999158081304893e+02  9.9998798797150801e+02  9.9998357591426657e+02  9.9997852002837794e+02  9.9997317615765758e+02  9.9996806329745027e+02  9.9996379168536350e+02  9.9996094459251651e+02  9.9995994413802885e+02  9.9996094459251583e+02  9.9996379168536419e+02  9.9996806329745027e+02  9.9997317615765780e+02  9.9997852002837828e+02  9.9998357591426679e+02  9.9998798797150801e+02  9.9999158081304870e+02  9.9999433330323973e+02  9.9999632955382697e+02  9.9999770714431111e+02  9.9999861565632273e+02  9.9999919044279511e+02  9.9999954049487962e+02  9.9999974634561681e+02  9.9999986356219472e+02  9.9999992835999547e+02  9.9999996321693857e+02  9.9999998150270949e+02  9.9999999087596689e+02  9.9999998150271017e+02  9.9999996180556627e+02  9.9999992260623981e+02  9.9999984634246971e+02  9.9999970158610574e+02  9.9999943412188304e+02  9.9999895423787359e+02  9.9999812040555639e+02  9.9999672144343697e+02  9.9999446253230360e+02  9.9999096480448441e+02  9.9998579221812577e+02  9.9997852002837760e+02  9.9996885226566826e+02  9.9995677814674343e+02  9.9994273093320771e+02  9.9992768715148520e+02  9.9991313629749288e+02  9.9990087729727077e+02  9.9989265982762322e+02  9.9988976391792221e+02  9.9989265982762367e+02  9.9990087729727031e+02  9.9991313629749254e+02  9.9992768715148509e+02  9.9994273093320794e+02  9.9995677814674286e+02  9.9996885226566769e+02  9.9997852002837749e+02  9.9998579221812565e+02  9.9999096480448384e+02  9.9999446253230292e+02  9.9999672144343640e+02  9.9999812040555571e+02  9.9999895423787291e+02  9.9999943412188281e+02  9.9999970158610597e+02  9.9999984634247039e+02  9.9999992260623912e+02  9.9999996180556593e+02  9.9999998150270676e+02  9.9999996321693789e+02  9.9999992260623912e+02  9.9999984011301115e+02  9.9999967619842528e+02  9.9999935826884780e+02  9.9999875770971130e+02  9.9999765570171360e+02  9.9999569688203064e+02  9.9999233461341726e+02  9.9998678068323613e+02  9.9997798575697288e+02  9.9996469161861887e+02  9.9994560352853659e+02  9.9991971711553651e+02  9.9988678571169419e+02  9.9984783040061916e+02  9.9980550290537087e+02  9.9976406727078552e+02  9.9972883251666121e+02  9.9970506418973798e+02  9.9969666117233965e+02  9.9970506418973798e+02  9.9972883251666099e+02  9.9976406727078461e+02  9.9980550290537110e+02  9.9984783040061961e+02  9.9988678571169407e+02  9.9991971711553731e+02  9.9994560352853546e+02  9.9996469161861842e+02  9.9997798575697232e+02  9.9998678068323659e+02  9.9999233461341737e+02  9.9999569688203042e+02  9.9999765570171371e+02  9.9999875770971073e+02  9.9999935826884712e+02  9.9999967619842539e+02  9.9999984011301206e+02  9.9999992260623901e+02  9.9999996321693561e+02  9.9999992835999615e+02  9.9999984634247016e+02  9.9999967619842562e+02  9.9999933069212409e+02  9.9999864536427663e+02  9.9999732067520290e+02  9.9999483206440698e+02  9.9999030149295527e+02  9.9998233469851903e+02  9.9996885226566872e+02  9.9994698269866240e+02  9.9991313629749288e+02  9.9986341693826535e+02  9.9979451082446155e+02  9.9970506418973844e+02  9.9959730369893714e+02  9.9947832940735520e+02  9.9936030323925218e+02  9.9925890218084373e+02  9.9919001870489853e+02  9.9916557905906541e+02  9.9919001870489819e+02  9.9925890218084362e+02  9.9936030323925274e+02  9.9947832940735418e+02  9.9959730369893703e+02  9.9970506418973855e+02  9.9979451082446178e+02  9.9986341693826523e+02  9.9991313629749254e+02  9.9994698269866205e+02  9.9996885226566769e+02  9.9998233469851925e+02  9.9999030149295550e+02  9.9999483206440664e+02  9.9999732067520279e+02  9.9999864536427640e+02  9.9999933069212386e+02  9.9999967619842573e+02  9.9999984634247016e+02  9.9999992835999296e+02  9.9999986356219472e+02  9.9999970158610563e+02  9.9999935826884757e+02  9.9999864536427697e+02  9.9999719819421421e+02  9.9999433330323814e+02  9.9998881738743125e+02  9.9997852002837692e+02  9.9995994413802748e+02  9.9992768715148543e+02  9.9987399947642984e+02  9.9978877114042996e+02  9.9966043867543760e+02  9.9947832940735395e+02  9.9923665605739450e+02  9.9893960187139976e+02  9.9860582459399086e+02  9.9826982768520668e+02  9.9797787345695349e+02  9.9777800852614848e+02  9.9770681953083010e+02  9.9777800852614814e+02  9.9797787345695326e+02  9.9826982768520656e+02  9.9860582459399075e+02  9.9893960187139999e+02  9.9923665605739450e+02  9.9947832940735486e+02  9.9966043867543783e+02  9.9978877114043019e+02  9.9987399947642916e+02  9.9992768715148452e+02  9.9995994413802737e+02  9.9997852002837715e+02  9.9998881738743125e+02  9.9999433330323848e+02  9.9999719819421409e+02  9.9999864536427606e+02  9.9999935826884746e+02  9.9999970158610506e+02  9.9999986356219210e+02  9.9999974634561681e+02  9.9999943412188293e+02  9.9999875770971119e+02  9.9999732067520358e+02  9.9999433330323905e+02  9.9998827137332933e+02  9.9997629774859411e+02  9.9995334849687049e+02  9.9991081861501550e+02  9.9983491696942713e+02  9.9970506418973878e+02  9.9949321366696665e+02  9.9916557905906598e+02  9.9868857862913137e+02  9.9804018802815358e+02  9.9722566520378973e+02  9.9629288145990756e+02  9.9533898675783325e+02  9.9450003327674119e+02  9.9392097869003953e+02  9.9371387380594638e+02  9.9392097869003828e+02  9.9450003327674142e+02  9.9533898675783291e+02  9.9629288145990824e+02  9.9722566520378950e+02  9.9804018802815301e+02  9.9868857862913205e+02  9.9916557905906632e+02  9.9949321366696711e+02  9.9970506418973878e+02  9.9983491696942690e+02  9.9991081861501561e+02  9.9995334849686981e+02  9.9997629774859433e+02  9.9998827137332773e+02  9.9999433330323870e+02  9.9999732067520335e+02  9.9999875770971062e+02  9.9999943412188270e+02  9.9999974634561465e+02  9.9999954049487849e+02  9.9999895423787359e+02  9.9999765570171348e+02  9.9999483206440709e+02  9.9998881738743182e+02  9.9997629774859388e+02  9.9995090424619355e+02  9.9990087729727190e+02  9.9980550290537030e+02  9.9963029025046876e+02  9.9932162371298296e+02  9.9880310301904524e+02  9.9797787345695349e+02  9.9674298072172382e+02  9.9502095094601668e+02  9.9280759022375400e+02  9.9022269308679074e+02  9.8753711859634075e+02  9.8514707956418795e+02  9.8348457431840006e+02  9.8288767531634880e+02  9.8348457431840006e+02  9.8514707956418681e+02  9.8753711859634109e+02  9.9022269308679051e+02  9.9280759022375412e+02  9.9502095094601657e+02  9.9674298072172394e+02  9.9797787345695372e+02  9.9880310301904490e+02  9.9932162371298386e+02  9.9963029025046865e+02  9.9980550290537019e+02  9.9990087729727099e+02  9.9995090424619411e+02  9.9997629774859388e+02  9.9998881738743160e+02  9.9999483206440698e+02  9.9999765570171337e+02  9.9999895423787268e+02  9.9999954049487690e+02  9.9999919044279568e+02  9.9999812040555582e+02  9.9999569688203042e+02  9.9999030149295550e+02  9.9997852002837703e+02  9.9995334849686992e+02  9.9990087729727054e+02  9.9979451082446121e+02  9.9958562935913233e+02  9.9919001870489899e+02  9.9847116825836827e+02  9.9722566520378984e+02  9.9518275052355602e+02  9.9203742412387760e+02  9.8753711859634041e+02  9.8162459939501730e+02  9.7459870233779372e+02  9.6720708941140003e+02  9.6057553354932190e+02  9.5594185681624970e+02  9.5427501087563076e+02  9.5594185681624958e+02  9.6057553354932224e+02  9.6720708941140015e+02  9.7459870233779372e+02  9.8162459939501684e+02  9.8753711859634097e+02  9.9203742412387749e+02  9.9518275052355568e+02  9.9722566520379053e+02  9.9847116825836929e+02  9.9919001870489853e+02  9.9958562935913210e+02  9.9979451082446246e+02  9.9990087729727077e+02  9.9995334849687003e+02  9.9997852002837692e+02  9.9999030149295527e+02  9.9999569688203042e+02  9.9999812040555594e+02  9.9999919044279284e+02  9.9999861565632330e+02  9.9999672144343640e+02  9.9999233461341760e+02  9.9998233469851868e+02  9.9995994413802725e+02  9.9991081861501482e+02  9.9980550290536996e+02  9.9958562935913324e+02  9.9914035838101256e+02  9.9826982768520668e+02  9.9663617473062561e+02  9.9371387380594615e+02  9.8877294810382591e+02  9.8095657143364758e+02  9.6952412245581127e+02  9.5427501087563098e+02  9.3602083039764625e+02  9.1681463818938471e+02  8.9966717002269650e+02  8.8776151572969354e+02  8.8349706387757544e+02  8.8776151572969286e+02  8.9966717002269650e+02  9.1681463818938357e+02  9.3602083039764648e+02  9.5427501087563053e+02  9.6952412245581093e+02  9.8095657143364883e+02  9.8877294810382580e+02  9.9371387380594581e+02  9.9663617473062527e+02  9.9826982768520770e+02  9.9914035838101267e+02  9.9958562935913176e+02  9.9980550290537053e+02  9.9991081861501539e+02  9.9995994413802748e+02  9.9998233469851937e+02  9.9999233461341782e+02  9.9999672144343538e+02  9.9999861565631988e+02  9.9999770714431202e+02  9.9999446253230337e+02  9.9998678068323647e+02  9.9996885226566781e+02  9.9992768715148520e+02  9.9983491696942679e+02  9.9963029025046876e+02  9.9919001870489853e+02  9.9826982768520668e+02  9.9641126505737884e+02  9.9280759022375469e+02  9.8615656732103366e+02  9.7459870233779429e+02  9.5594185681625004e+02  9.2840631820567000e+02  8.9187501814858376e+02  8.4903468383946961e+02  8.0540201195438624e+02  7.6786632472664110e+02  7.4263155581927413e+02  7.3375988752799128e+02  7.4263155581927401e+02  7.6786632472664121e+02  8.0540201195438624e+02  8.4903468383946984e+02  8.9187501814858467e+02  9.2840631820567046e+02  9.5594185681624958e+02  9.7459870233779372e+02  9.8615656732103400e+02  9.9280759022375457e+02  9.9641126505737986e+02  9.9826982768520634e+02  9.9919001870489865e+02  9.9963029025046899e+02  9.9983491696942679e+02  9.9992768715148520e+02  9.9996885226566815e+02  9.9998678068323670e+02  9.9999446253230315e+02  9.9999770714430974e+02  9.9999632955382651e+02  9.9999096480448395e+02  9.9997798575697254e+02  9.9994698269866262e+02  9.9987399947643030e+02  9.9970506418973889e+02  9.9932162371298239e+02  9.9847116825836849e+02  9.9663617473062618e+02  9.9280759022375423e+02  9.8514707956418715e+02  9.7061789647181740e+02  9.4491198041372934e+02  9.0335468371634454e+02  8.4339783633813124e+02  7.6786632472664087e+02  6.8597219594320950e+02  6.1002457427847855e+02  5.5040744156048288e+02  5.1310846007970838e+02  5.0050000000000460e+02  5.1310846007970918e+02  5.5040744156048277e+02  6.1002457427847798e+02  6.8597219594321064e+02  7.6786632472664178e+02  8.4339783633813192e+02  9.0335468371634443e+02  9.4491198041372979e+02  9.7061789647181729e+02  9.8514707956418749e+02  9.9280759022375366e+02  9.9663617473062493e+02  9.9847116825836815e+02  9.9932162371298261e+02  9.9970506418973855e+02  9.9987399947642962e+02  9.9994698269866240e+02  9.9997798575697277e+02  9.9999096480448429e+02  9.9999632955382413e+02  9.9999433330323973e+02  9.9998579221812577e+02  9.9996469161861819e+02  9.9991313629749277e+02  9.9978877114042996e+02  9.9949321366696722e+02  9.9880310301904490e+02  9.9722566520378928e+02  9.9371387380594558e+02  9.8615656732103366e+02  9.7061789647181729e+02  9.4063582615387850e+02  8.8776151572969297e+02  8.0540201195438510e+02  6.9598141144655710e+02  5.7469753517607910e+02  4.6235782350545435e+02  3.7358677492379576e+02  3.1282466807537327e+02  2.7833267219309738e+02  2.6724011247201827e+02  2.7833267219309738e+02  3.1282466807537310e+02  3.7358677492379547e+02  4.6235782350545446e+02  5.7469753517607944e+02  6.9598141144655733e+02  8.0540201195438578e+02  8.8776151572969229e+02  9.4063582615387907e+02  9.7061789647181786e+02  9.8615656732103332e+02  9.9371387380594660e+02  9.9722566520378916e+02  9.9880310301904467e+02  9.9949321366696722e+02  9.9978877114042962e+02  9.9991313629749243e+02  9.9996469161861819e+02  9.9998579221812622e+02  9.9999433330323700e+02  9.9999158081304824e+02  9.9997852002837749e+02  9.9994560352853546e+02  9.9986341693826512e+02  9.9966043867543772e+02  9.9916557905906598e+02  9.9797787345695326e+02  9.9518275052355580e+02  9.8877294810382523e+02  9.7459870233779350e+02  9.4491198041372888e+02  8.8776151572969297e+02  7.9105377535177331e+02  6.5464056817174969e+02  5.0050000000000483e+02  3.6117315551725818e+02  2.5636818038371302e+02  1.8713709568134874e+02  1.4570617112099458e+02  1.2414823909349413e+02  1.1750293612243368e+02  1.2414823909349404e+02  1.4570617112099447e+02  1.8713709568134857e+02  2.5636818038371325e+02  3.6117315551725858e+02  5.0050000000000495e+02  6.5464056817175037e+02  7.9105377535177377e+02  8.8776151572969297e+02  9.4491198041372922e+02  9.7459870233779418e+02  9.8877294810382546e+02  9.9518275052355648e+02  9.9797787345695326e+02  9.9916557905906620e+02  9.9966043867543749e+02  9.9986341693826535e+02  9.9994560352853568e+02  9.9997852002837681e+02  9.9999158081304643e+02  9.9998798797150846e+02  9.9996885226566826e+02  9.9991971711553686e+02  9.9979451082446190e+02  9.9947832940735429e+02  9.9868857862913183e+02  9.9674298072172382e+02  9.9203742412387828e+02  9.8095657143364792e+02  9.5594185681624924e+02  9.0335468371634408e+02  8.0540201195438522e+02  6.5464056817174981e+02  4.7510902082242825e+02  3.1282466807537321e+02  1.9624596945150816e+02  1.2414823909349396e+02  8.3041440845056457e+01  6.0819850048034908e+01  4.9968959458587165e+01  4.6724989124378887e+01  4.9968959458587200e+01  6.0819850048034979e+01  8.3041440845056286e+01  1.2414823909349398e+02  1.9624596945150793e+02  3.1282466807537372e+02  4.7510902082242984e+02  6.5464056817174992e+02  8.0540201195438522e+02  9.0335468371634477e+02  9.5594185681624958e+02  9.8095657143364815e+02  9.9203742412387692e+02  9.9674298072172405e+02  9.9868857862913296e+02  9.9947832940735486e+02  9.9979451082446155e+02  9.9991971711553674e+02  9.9996885226566803e+02  9.9998798797150641e+02  9.9998357591426702e+02  9.9995677814674298e+02  9.9988678571169373e+02  9.9970506418973764e+02  9.9923665605739461e+02  9.9804018802815335e+02  9.9502095094601566e+02  9.8753711859634143e+02  9.6952412245581081e+02  9.2840631820567046e+02  8.4339783633812942e+02  6.9598141144655722e+02  5.0050000000000460e+02  3.1282466807537361e+02  1.7830021707323687e+02  9.9140789300367814e+01  5.7009539510130544e+01  3.5432514040710835e+01  2.4611733578896612e+01  1.9580141213171292e+01  1.8112324683661015e+01  1.9580141213171242e+01  2.4611733578896590e+01  3.5432514040710785e+01  5.7009539510130665e+01  9.9140789300367928e+01  1.7830021707323672e+02  3.1282466807537384e+02  5.0050000000000500e+02  6.9598141144655722e+02  8.4339783633813215e+02  9.2840631820567125e+02  9.6952412245581093e+02  9.8753711859634166e+02  9.9502095094601714e+02  9.9804018802815301e+02  9.9923665605739518e+02  9.9970506418973844e+02  9.9988678571169430e+02  9.9995677814674309e+02  9.9998357591426463e+02  9.9997852002837806e+02  9.9994273093320783e+02  9.9984783040061950e+02  9.9959730369893714e+02  9.9893960187139953e+02  9.9722566520378950e+02  9.9280759022375435e+02  9.8162459939501650e+02  9.5427501087563053e+02  8.9187501814858388e+02  7.6786632472664019e+02  5.7469753517607910e+02  3.6117315551725818e+02  1.9624596945150807e+02  9.9140789300367928e+01  4.9968959458587349e+01  2.6516709792931106e+01  1.5459469039328759e+01  1.0256231340701099e+01  7.9443682416215262e+00  7.2861261940632467e+00  7.9443682416215271e+00  1.0256231340701113e+01  1.5459469039328759e+01  2.6516709792931142e+01  4.9968959458587243e+01  9.9140789300367857e+01  1.9624596945150844e+02  3.6117315551725824e+02  5.7469753517608001e+02  7.6786632472664121e+02  8.9187501814858479e+02  9.5427501087563132e+02  9.8162459939501696e+02  9.9280759022375446e+02  9.9722566520378950e+02  9.9893960187139976e+02  9.9959730369893737e+02  9.9984783040061939e+02  9.9994273093320737e+02  9.9997852002837612e+02  9.9997317615765758e+02  9.9992768715148532e+02  9.9980550290537099e+02  9.9947832940735520e+02  9.9860582459399063e+02  9.9629288145990677e+02  9.9022269308679233e+02  9.7459870233779350e+02  9.3602083039764591e+02  8.4903468383946949e+02  6.8597219594321007e+02  4.6235782350545418e+02  2.5636818038371314e+02  1.2414823909349394e+02  5.7009539510130629e+01  2.6516709792931142e+01  1.3151241849596238e+01  7.2861261940632547e+00  4.6933487515825210e+00  3.5967732018559624e+00  3.2931804691789952e+00  3.5967732018559562e+00  4.6933487515825174e+00  7.2861261940632360e+00  1.3151241849596227e+01  2.6516709792931131e+01  5.7009539510130672e+01  1.2414823909349415e+02  2.5636818038371291e+02  4.6235782350545486e+02  6.8597219594321041e+02  8.4903468383947006e+02  9.3602083039764671e+02  9.7459870233779418e+02  9.9022269308679176e+02  9.9629288145990881e+02  9.9860582459399120e+02  9.9947832940735520e+02  9.9980550290537030e+02  9.9992768715148475e+02  9.9997317615765508e+02  9.9996806329744982e+02  9.9991313629749243e+02  9.9976406727078574e+02  9.9936030323925263e+02  9.9826982768520691e+02  9.9533898675783314e+02  9.8753711859634177e+02  9.6720708941140003e+02  9.1681463818938460e+02  8.0540201195438613e+02  6.1002457427847878e+02  3.7358677492379564e+02  1.8713709568134877e+02  8.3041440845056286e+01  3.5432514040710842e+01  1.5459469039328777e+01  7.2861261940632609e+00  3.9298606983559514e+00  2.5393314231317001e+00  1.9832682134807602e+00  1.8344209409434906e+00  1.9832682134807589e+00  2.5393314231317019e+00  3.9298606983559434e+00  7.2861261940632565e+00  1.5459469039328788e+01  3.5432514040710863e+01  8.3041440845056670e+01  1.8713709568134882e+02  3.7358677492379655e+02  6.1002457427847958e+02  8.0540201195438647e+02  9.1681463818938528e+02  9.6720708941140037e+02  9.8753711859634200e+02  9.9533898675783269e+02  9.9826982768520747e+02  9.9936030323925274e+02  9.9976406727078563e+02  9.9991313629749288e+02  9.9996806329744777e+02  9.9996379168536419e+02  9.9990087729727077e+02  9.9972883251666178e+02  9.9925890218084351e+02  9.9797787345695349e+02  9.9450003327674176e+02  9.8514707956418772e+02  9.6057553354932202e+02  8.9966717002269672e+02  7.6786632472664132e+02  5.5040744156048231e+02  3.1282466807537293e+02  1.4570617112099464e+02  6.0819850048034930e+01  2.4611733578896605e+01  1.0256231340701095e+01  4.6933487515825192e+00  2.5393314231317010e+00  1.7014625207921872e+00  1.3852021542581012e+00  1.3033388276683799e+00  1.3852021542581014e+00  1.7014625207921887e+00  2.5393314231316966e+00  4.6933487515825245e+00  1.0256231340701119e+01  2.4611733578896629e+01  6.0819850048035150e+01  1.4570617112099433e+02  3.1282466807537344e+02  5.5040744156048288e+02  7.6786632472664189e+02  8.9966717002269661e+02  9.6057553354932179e+02  9.8514707956418715e+02  9.9450003327674244e+02  9.9797787345695383e+02  9.9925890218084282e+02  9.9972883251666053e+02  9.9990087729727031e+02  9.9996379168536157e+02  9.9996094459251572e+02  9.9989265982762367e+02  9.9970506418973832e+02  9.9919001870489876e+02  9.9777800852614871e+02  9.9392097869003953e+02  9.8348457431840040e+02  9.5594185681624970e+02  8.8776151572969263e+02  7.4263155581927424e+02  5.1310846007970895e+02  2.7833267219309732e+02  1.2414823909349406e+02  4.9968959458587172e+01  1.9580141213171288e+01  7.9443682416215280e+00  3.5967732018559597e+00  1.9832682134807602e+00  1.3852021542581019e+00  1.1676577442020766e+00  1.1102360820871120e+00  1.1676577442020764e+00  1.3852021542581030e+00  1.9832682134807611e+00  3.5967732018559659e+00  7.9443682416215458e+00  1.9580141213171341e+01  4.9968959458587470e+01  1.2414823909349400e+02  2.7833267219309789e+02  5.1310846007970929e+02  7.4263155581927447e+02  8.8776151572969320e+02  9.5594185681624981e+02  9.8348457431840006e+02  9.9392097869003942e+02  9.9777800852614837e+02  9.9919001870489899e+02  9.9970506418973821e+02  9.9989265982762390e+02  9.9996094459251356e+02  9.9995994413802885e+02  9.9988976391792266e+02  9.9969666117234146e+02  9.9916557905906598e+02  9.9770681953082976e+02  9.9371387380594626e+02  9.8288767531634869e+02  9.5427501087563087e+02  8.8349706387757521e+02  7.3375988752799117e